<?xml version="1.0" encoding="ISO-8859-1"?>
<modeling>
 <generator>
  <i name="program" type="string">vasp </i>
  <i name="version" type="string">5.4.4.18Apr17-6-g9f103f2a35  </i>
  <i name="subversion" type="string">(build Dec 18 2018 20:02:03) complex            serial </i>
  <i name="platform" type="string">LinuxIFC </i>
  <i name="date" type="string">2022 02 01 </i>
  <i name="time" type="string">15:26:15 </i>
 </generator>
 <incar>
  <i type="string" name="PREC">normal</i>
  <v type="int" name="KPOINT_BSE">    -1     0     0     0</v>
  <i type="string" name="GGA"> PE</i>
 </incar>
 <structure name="primitive_cell" >
  <crystal>
   <varray name="basis" >
    <v>      -1.57500000       1.57500000       1.57500000 </v>
    <v>       1.57500000      -1.57500000       1.57500000 </v>
    <v>       1.57500000       1.57500000      -1.57500000 </v>
   </varray>
   <i name="volume">     15.62793750 </i>
   <varray name="rec_basis" >
    <v>       0.00000000       0.31746032       0.31746032 </v>
    <v>       0.31746032       0.00000000       0.31746032 </v>
    <v>       0.31746032       0.31746032       0.00000000 </v>
   </varray>
  </crystal>
  <varray name="positions" >
   <v>       0.00000000       0.00000000       0.00000000 </v>
  </varray>
 </structure>
 <varray name="primitive_index" >
  <v type="int" >        1 </v>
 </varray>
 <kpoints>
  <generation param="Monkhorst-Pack">
   <v type="int" name="divisions">       1        1        1 </v>
   <v name="usershift">      0.00000000       0.00000000       0.00000000 </v>
   <v name="genvec1">      1.00000000       0.00000000       0.00000000 </v>
   <v name="genvec2">      0.00000000       1.00000000       0.00000000 </v>
   <v name="genvec3">      0.00000000       0.00000000       1.00000000 </v>
   <v name="shift">      0.00000000       0.00000000       0.00000000 </v>
  </generation>
  <varray name="kpointlist" >
   <v>       0.00000000       0.00000000       0.00000000 </v>
  </varray>
  <varray name="weights" >
   <v>       1.00000000 </v>
  </varray>
 </kpoints>
 <parameters>
  <separator name="general" >
   <i type="string" name="SYSTEM">unknown system</i>
   <i type="logical" name="LCOMPAT"> F  </i>
  </separator>
  <separator name="electronic" >
   <i type="string" name="PREC">normal</i>
   <i name="ENMAX">    242.67600000</i>
   <i name="ENAUG">    446.01400000</i>
   <i name="EDIFF">      0.00010000</i>
   <i type="int" name="IALGO">    38</i>
   <i type="int" name="IWAVPR">     0</i>
   <i type="int" name="NBANDS">    11</i>
   <i name="NELECT">     14.00000000</i>
   <i type="int" name="TURBO">     0</i>
   <i type="int" name="IRESTART">     0</i>
   <i type="int" name="NREBOOT">     0</i>
   <i type="int" name="NMIN">     0</i>
   <i name="EREF">      0.00000000</i>
   <separator name="electronic smearing" >
    <i type="int" name="ISMEAR">     1</i>
    <i name="SIGMA">      0.20000000</i>
    <i name="KSPACING">      0.50000000</i>
    <i type="logical" name="KGAMMA"> T  </i>
   </separator>
   <separator name="electronic projectors" >
    <i type="logical" name="LREAL"> F  </i>
    <v name="ROPT">      0.00000000</v>
    <i type="int" name="LMAXPAW">  -100</i>
    <i type="int" name="LMAXMIX">     2</i>
    <i type="logical" name="NLSPLINE"> F  </i>
   </separator>
   <separator name="electronic startup" >
    <i type="int" name="ISTART">     0</i>
    <i type="int" name="ICHARG">     2</i>
    <i type="int" name="INIWAV">     1</i>
   </separator>
   <separator name="electronic spin" >
    <i type="int" name="ISPIN">     1</i>
    <i type="logical" name="LNONCOLLINEAR"> F  </i>
    <v name="MAGMOM">      1.00000000</v>
    <i name="NUPDOWN">     -1.00000000</i>
    <i type="logical" name="LSORBIT"> F  </i>
    <v name="SAXIS">      0.00000000      0.00000000      1.00000000</v>
    <i type="logical" name="LSPIRAL"> F  </i>
    <v name="QSPIRAL">      0.00000000      0.00000000      0.00000000</v>
    <i type="logical" name="LZEROZ"> F  </i>
   </separator>
   <separator name="electronic exchange-correlation" >
    <i type="logical" name="LASPH"> F  </i>
    <i type="logical" name="LMETAGGA"> F  </i>
   </separator>
   <separator name="electronic convergence" >
    <i type="int" name="NELM">    60</i>
    <i type="int" name="NELMDL">    -5</i>
    <i type="int" name="NELMIN">     2</i>
    <i name="ENINI">    242.67600000</i>
    <separator name="electronic convergence detail" >
     <i type="logical" name="LDIAG"> T  </i>
     <i type="logical" name="LSUBROT"> F  </i>
     <i name="WEIMIN">      0.00000000</i>
     <i name="EBREAK">      0.00000227</i>
     <i name="DEPER">      0.30000000</i>
     <i type="int" name="NRMM">     4</i>
     <i name="TIME">      0.40000000</i>
    </separator>
   </separator>
   <separator name="electronic mixer" >
    <i name="AMIX">      0.40000000</i>
    <i name="BMIX">      1.00000000</i>
    <i name="AMIN">      0.10000000</i>
    <i name="AMIX_MAG">      1.60000000</i>
    <i name="BMIX_MAG">      1.00000000</i>
    <separator name="electronic mixer details" >
     <i type="int" name="IMIX">     4</i>
     <i type="logical" name="MIXFIRST"> F  </i>
     <i type="int" name="MAXMIX">   -45</i>
     <i name="WC">    100.00000000</i>
     <i type="int" name="INIMIX">     1</i>
     <i type="int" name="MIXPRE">     1</i>
     <i type="int" name="MREMOVE">     5</i>
    </separator>
   </separator>
   <separator name="electronic dipolcorrection" >
    <i type="logical" name="LDIPOL"> F  </i>
    <i type="logical" name="LMONO"> F  </i>
    <i type="int" name="IDIPOL">     0</i>
    <i name="EPSILON">      1.00000000</i>
    <v name="DIPOL">   -100.00000000   -100.00000000   -100.00000000</v>
    <i name="EFIELD">      0.00000000</i>
   </separator>
  </separator>
  <separator name="grids" >
   <i type="int" name="NGX">    10</i>
   <i type="int" name="NGY">    10</i>
   <i type="int" name="NGZ">    10</i>
   <i type="int" name="NGXF">    20</i>
   <i type="int" name="NGYF">    20</i>
   <i type="int" name="NGZF">    20</i>
   <i type="logical" name="ADDGRID"> F  </i>
  </separator>
  <separator name="ionic" >
   <i type="int" name="NSW">     0</i>
   <i type="int" name="IBRION">    -1</i>
   <i type="int" name="MDALGO">     0</i>
   <i type="int" name="ISIF">     2</i>
   <i name="PSTRESS">      0.00000000</i>
   <i name="EDIFFG">      0.00100000</i>
   <i type="int" name="NFREE">     0</i>
   <i name="POTIM">      0.50000000</i>
   <i name="SMASS">     -3.00000000</i>
   <i name="SCALEE">      1.00000000</i>
  </separator>
  <separator name="ionic md" >
   <i name="TEBEG">      0.00010000</i>
   <i name="TEEND">      0.00010000</i>
   <i type="int" name="NBLOCK">     1</i>
   <i type="int" name="KBLOCK">     1</i>
   <i type="int" name="NPACO">   256</i>
   <i name="APACO">     16.00000000</i>
  </separator>
  <separator name="symmetry" >
   <i type="int" name="ISYM">     2</i>
   <i name="SYMPREC">      0.00001000</i>
  </separator>
  <separator name="dos" >
   <i type="int" name="LORBIT">     0</i>
   <v name="RWIGS">     -1.00000000</v>
   <i type="int" name="NEDOS">   301</i>
   <i name="EMIN">     10.00000000</i>
   <i name="EMAX">    -10.00000000</i>
   <i name="EFERMI">      0.00000000</i>
  </separator>
  <separator name="writing" >
   <i type="int" name="NWRITE">     2</i>
   <i type="logical" name="LWAVE"> T  </i>
   <i type="logical" name="LDOWNSAMPLE"> F  </i>
   <i type="logical" name="LCHARG"> T  </i>
   <i type="logical" name="LPARD"> F  </i>
   <i type="logical" name="LVTOT"> F  </i>
   <i type="logical" name="LVHAR"> F  </i>
   <i type="logical" name="LELF"> F  </i>
   <i type="logical" name="LOPTICS"> F  </i>
   <v name="STM">      0.00000000      0.00000000      0.00000000      0.00000000      0.00000000      0.00000000      0.00000000</v>
  </separator>
  <separator name="performance" >
   <i type="int" name="NPAR">     1</i>
   <i type="int" name="NSIM">     4</i>
   <i type="int" name="NBLK">    -1</i>
   <i type="logical" name="LPLANE"> T  </i>
   <i type="logical" name="LSCALAPACK"> F  </i>
   <i type="logical" name="LSCAAWARE"> F  </i>
   <i type="logical" name="LSCALU"> F  </i>
   <i type="logical" name="LASYNC"> F  </i>
   <i type="logical" name="LORBITALREAL"> F  </i>
  </separator>
  <separator name="miscellaneous" >
   <i type="int" name="IDIOT">     3</i>
   <i type="int" name="ISPECIAL">     0</i>
   <i type="logical" name="LMUSIC"> F  </i>
   <v name="POMASS">     95.94000000</v>
   <v name="DARWINR">      0.00000000</v>
   <v name="DARWINV">      1.00000000</v>
   <i type="logical" name="LCORR"> T  </i>
  </separator>
  <i type="logical" name="GGA_COMPAT"> T  </i>
  <i type="logical" name="LBERRY"> F  </i>
  <i type="int" name="ICORELEVEL">     0</i>
  <i type="logical" name="LDAU"> F  </i>
  <i type="int" name="I_CONSTRAINED_M">     0</i>
  <separator name="electronic exchange-correlation" >
   <i type="string" name="GGA">PE</i>
   <i type="int" name="VOSKOWN">     0</i>
   <i type="logical" name="LHFCALC"> F  </i>
   <i type="string" name="PRECFOCK"></i>
   <i type="logical" name="LSYMGRAD"> F  </i>
   <i type="logical" name="LHFONE"> F  </i>
   <i type="logical" name="LRHFCALC"> F  </i>
   <i type="logical" name="LTHOMAS"> F  </i>
   <i type="logical" name="LMODELHF"> F  </i>
   <i name="ENCUT4O">     -1.00000000</i>
   <i type="int" name="EXXOEP">     0</i>
   <i type="int" name="FOURORBIT">     0</i>
   <i name="AEXX">      0.00000000</i>
   <i name="HFALPHA">      0.00000000</i>
   <i name="MCALPHA">      0.00000000</i>
   <i name="ALDAX">      1.00000000</i>
   <i name="AGGAX">      1.00000000</i>
   <i name="ALDAC">      1.00000000</i>
   <i name="AGGAC">      1.00000000</i>
   <i type="int" name="NKREDX">     1</i>
   <i type="int" name="NKREDY">     1</i>
   <i type="int" name="NKREDZ">     1</i>
   <i type="logical" name="SHIFTRED"> F  </i>
   <i type="logical" name="ODDONLY"> F  </i>
   <i type="logical" name="EVENONLY"> F  </i>
   <i type="int" name="LMAXFOCK">     0</i>
   <i type="int" name="NMAXFOCKAE">     0</i>
   <i type="logical" name="LFOCKAEDFT"> F  </i>
   <i name="HFSCREEN">      0.00000000</i>
   <i name="HFSCREENC">      0.00000000</i>
   <i type="int" name="NBANDSGWLOW">     0</i>
  </separator>
  <separator name="vdW DFT" >
   <i type="logical" name="LUSE_VDW"> F  </i>
   <i name="Zab_VDW">     -0.84910000</i>
   <i name="PARAM1">      0.12340000</i>
   <i name="PARAM2">      1.00000000</i>
   <i name="PARAM3">      0.00000000</i>
  </separator>
  <separator name="model GW" >
   <i type="int" name="MODEL_GW">     0</i>
   <i name="MODEL_EPS0">      9.37676250</i>
   <i name="MODEL_ALPHA">      1.00000000</i>
  </separator>
  <separator name="linear response parameters" >
   <i type="logical" name="LEPSILON"> F  </i>
   <i type="logical" name="LRPA"> F  </i>
   <i type="logical" name="LNABLA"> F  </i>
   <i type="logical" name="LVEL"> F  </i>
   <i type="int" name="KINTER">     0</i>
   <i name="CSHIFT">      0.10000000</i>
   <i name="OMEGAMAX">     -1.00000000</i>
   <i name="DEG_THRESHOLD">      0.00200000</i>
   <i name="RTIME">     -0.10000000</i>
   <i name="WPLASMAI">      0.00000000</i>
   <v name="DFIELD">      0.00000000      0.00000000      0.00000000</v>
   <v name="WPLASMA">      0.00000000      0.00000000      0.00000000      0.00000000      0.00000000      0.00000000      0.00000000      0.00000000      0.00000000</v>
  </separator>
  <separator name="orbital magnetization" >
   <i type="logical" name="NUCIND"> F  </i>
   <v name="MAGPOS">      0.00000000      0.00000000      0.00000000</v>
   <i type="logical" name="LNICSALL"> T  </i>
   <i type="logical" name="ORBITALMAG"> F  </i>
   <i type="logical" name="LMAGBLOCH"> F  </i>
   <i type="logical" name="LCHIMAG"> F  </i>
   <i type="logical" name="LGAUGE"> T  </i>
   <i type="int" name="MAGATOM">     0</i>
   <v name="MAGDIPOL">      0.00000000      0.00000000      0.00000000</v>
   <v name="AVECCONST">      0.00000000      0.00000000      0.00000000</v>
  </separator>
  <separator name="response functions" >
   <i type="logical" name="LADDER"> F  </i>
   <i type="logical" name="LRPAFORCE"> F  </i>
   <i type="logical" name="LFXC"> F  </i>
   <i type="logical" name="LHARTREE"> T  </i>
   <i type="int" name="IBSE">     0</i>
   <v type="int" name="KPOINT">    -1     0     0     0</v>
   <i type="logical" name="LTCTE"> F  </i>
   <i type="logical" name="LTETE"> F  </i>
   <i type="logical" name="LTRIPLET"> F  </i>
   <i type="logical" name="LFXCEPS"> F  </i>
   <i type="logical" name="LFXHEG"> F  </i>
   <i type="int" name="NATURALO">     2</i>
   <i type="logical" name="L2ORDER"> F  </i>
   <i type="logical" name="LMP2LT"> F  </i>
   <i type="logical" name="LUSEW"> F  </i>
   <i name="ENCUTGW">     -2.00000000</i>
   <i name="ENCUTGWSOFT">     -2.00000000</i>
   <i name="ENCUTLF">     -1.00000000</i>
   <i type="int" name="LMAXMP2">    -1</i>
   <i name="SCISSOR">      0.00000000</i>
   <i type="int" name="NOMEGA">     0</i>
   <i type="int" name="NOMEGAR">     0</i>
   <i type="int" name="NBANDSGW">    -1</i>
   <i type="int" name="NBANDSO">    -1</i>
   <i type="int" name="NBANDSV">    -1</i>
   <i type="int" name="NELM">     1</i>
   <i type="int" name="NELMHF">     1</i>
   <i type="int" name="DIM">     3</i>
   <i type="int" name="ANTIRES">     0</i>
   <i name="OMEGAMAX">    -30.00000000</i>
   <i name="OMEGAMIN">    -30.00000000</i>
   <i name="OMEGATL">   -200.00000000</i>
   <i type="int" name="OMEGAGRID">   140</i>
   <i name="CSHIFT">     -0.10000000</i>
   <i type="logical" name="SELFENERGY"> F  </i>
   <i type="logical" name="LSPECTRAL"> F  </i>
   <i type="logical" name="LSPECTRALGW"> F  </i>
   <i type="logical" name="LSINGLES"> F  </i>
   <i type="logical" name="LFERMIGW"> F  </i>
   <i type="logical" name="ODDONLYGW"> F  </i>
   <i type="logical" name="EVENONLYGW"> F  </i>
   <i type="int" name="NKREDLFX">     1</i>
   <i type="int" name="NKREDLFY">     1</i>
   <i type="int" name="NKREDLFZ">     1</i>
   <i type="int" name="MAXMEM">  2800</i>
   <i type="int" name="TELESCOPE">     0</i>
   <i type="int" name="TAUPAR">     1</i>
   <i type="int" name="OMEGAPAR">    -1</i>
   <i name="LAMBDA">      1.00000000</i>
  </separator>
  <separator name="External order field" >
   <i name="OFIELD_KAPPA">      0.00000000</i>
   <v name="OFIELD_K">      0.00000000      0.00000000      0.00000000</v>
   <i name="OFIELD_Q6_NEAR">      0.00000000</i>
   <i name="OFIELD_Q6_FAR">      0.00000000</i>
   <i name="OFIELD_A">      0.00000000</i>
  </separator>
 </parameters>
 <atominfo>
  <atoms>       1 </atoms>
  <types>       1 </types>
  <array name="atoms" >
   <dimension dim="1">ion</dimension>
   <field type="string">element</field>
   <field type="int">atomtype</field>
   <set>
    <rc><c>Mo</c><c>   1</c></rc>
   </set>
  </array>
  <array name="atomtypes" >
   <dimension dim="1">type</dimension>
   <field type="int">atomspertype</field>
   <field type="string">element</field>
   <field>mass</field>
   <field>valence</field>
   <field type="string">pseudopotential</field>
   <set>
    <rc><c>   1</c><c>Mo</c><c>     95.94000000</c><c>     14.00000000</c><c>  PAW_PBE Mo_sv 02Feb2006               </c></rc>
   </set>
  </array>
 </atominfo>
 <structure name="initialpos" >
  <crystal>
   <varray name="basis" >
    <v>      -1.57500000       1.57500000       1.57500000 </v>
    <v>       1.57500000      -1.57500000       1.57500000 </v>
    <v>       1.57500000       1.57500000      -1.57500000 </v>
   </varray>
   <i name="volume">     15.62793750 </i>
   <varray name="rec_basis" >
    <v>       0.00000000       0.31746032       0.31746032 </v>
    <v>       0.31746032       0.00000000       0.31746032 </v>
    <v>       0.31746032       0.31746032       0.00000000 </v>
   </varray>
  </crystal>
  <varray name="positions" >
   <v>       0.00000000       0.00000000       0.00000000 </v>
  </varray>
 </structure>
 <calculation>
  <scstep>
   <time name="dav">    0.17    0.12</time>
   <time name="total">    0.22    0.13</time>
   <energy>
    <i name="alphaZ">    117.92120489 </i>
    <i name="ewald">  -1630.35248808 </i>
    <i name="hartreedc">   -291.46689854 </i>
    <i name="XCdc">     66.79168915 </i>
    <i name="pawpsdc">   1497.82075731 </i>
    <i name="pawaedc">  -1479.33650050 </i>
    <i name="eentropy">      0.01159581 </i>
    <i name="bandstr">   -114.42184914 </i>
    <i name="atom">   1862.15115370 </i>
    <i name="e_fr_energy">     29.11866460 </i>
    <i name="e_wo_entrp">     29.10706879 </i>
    <i name="e_0_energy">     29.11479933 </i>
   </energy>
  </scstep>
  <scstep>
   <time name="dav">    0.01    0.00</time>
   <time name="total">    0.01    0.00</time>
   <energy>
    <i name="e_fr_energy">    -10.13931843 </i>
    <i name="e_wo_entrp">     -9.99441646 </i>
    <i name="e_0_energy">    -10.09101777 </i>
   </energy>
  </scstep>
  <scstep>
   <time name="dav">    0.01    0.00</time>
   <time name="total">    0.01    0.00</time>
   <energy>
    <i name="e_fr_energy">    -10.34637667 </i>
    <i name="e_wo_entrp">    -10.19705078 </i>
    <i name="e_0_energy">    -10.29660137 </i>
   </energy>
  </scstep>
  <scstep>
   <time name="dav">    0.01    0.00</time>
   <time name="total">    0.01    0.00</time>
   <energy>
    <i name="e_fr_energy">    -10.34693577 </i>
    <i name="e_wo_entrp">    -10.19760834 </i>
    <i name="e_0_energy">    -10.29715996 </i>
   </energy>
  </scstep>
  <scstep>
   <time name="dav">    0.01    0.00</time>
   <time name="total">    0.01    0.00</time>
   <energy>
    <i name="e_fr_energy">    -10.34693866 </i>
    <i name="e_wo_entrp">    -10.19761122 </i>
    <i name="e_0_energy">    -10.29716285 </i>
   </energy>
  </scstep>
  <scstep>
   <time name="dav">    0.01    0.00</time>
   <time name="total">    0.03    0.01</time>
   <energy>
    <i name="e_fr_energy">    -10.20455656 </i>
    <i name="e_wo_entrp">    -10.05523561 </i>
    <i name="e_0_energy">    -10.15478291 </i>
   </energy>
  </scstep>
  <scstep>
   <time name="dav">    0.01    0.00</time>
   <time name="total">    0.03    0.01</time>
   <energy>
    <i name="e_fr_energy">    -10.17495148 </i>
    <i name="e_wo_entrp">    -10.02562322 </i>
    <i name="e_0_energy">    -10.12517540 </i>
   </energy>
  </scstep>
  <scstep>
   <time name="dav">    0.01    0.00</time>
   <time name="total">    0.03    0.01</time>
   <energy>
    <i name="e_fr_energy">    -10.17442786 </i>
    <i name="e_wo_entrp">    -10.02509549 </i>
    <i name="e_0_energy">    -10.12465040 </i>
   </energy>
  </scstep>
  <scstep>
   <time name="dav">    0.01    0.00</time>
   <time name="total">    0.03    0.01</time>
   <energy>
    <i name="e_fr_energy">    -10.17419974 </i>
    <i name="e_wo_entrp">    -10.02486732 </i>
    <i name="e_0_energy">    -10.12442227 </i>
   </energy>
  </scstep>
  <scstep>
   <time name="dav">    0.01    0.00</time>
   <time name="total">    0.03    0.01</time>
   <energy>
    <i name="alphaZ">    117.92120489 </i>
    <i name="ewald">  -1630.35248808 </i>
    <i name="hartreedc">   -279.43722047 </i>
    <i name="XCdc">     66.24059437 </i>
    <i name="pawpsdc">   1790.81287106 </i>
    <i name="pawaedc">  -1780.15880647 </i>
    <i name="eentropy">     -0.14933313 </i>
    <i name="bandstr">   -157.20217156 </i>
    <i name="atom">   1862.15115370 </i>
    <i name="e_fr_energy">    -10.17419569 </i>
    <i name="e_wo_entrp">    -10.02486256 </i>
    <i name="e_0_energy">    -10.12441798 </i>
   </energy>
  </scstep>
  <structure>
   <crystal>
    <varray name="basis" >
     <v>      -1.57500000       1.57500000       1.57500000 </v>
     <v>       1.57500000      -1.57500000       1.57500000 </v>
     <v>       1.57500000       1.57500000      -1.57500000 </v>
    </varray>
    <i name="volume">     15.62793750 </i>
    <varray name="rec_basis" >
     <v>       0.00000000       0.31746032       0.31746032 </v>
     <v>       0.31746032       0.00000000       0.31746032 </v>
     <v>       0.31746032       0.31746032       0.00000000 </v>
    </varray>
   </crystal>
   <varray name="positions" >
    <v>       0.00000000       0.00000000       0.00000000 </v>
   </varray>
  </structure>
  <varray name="forces" >
   <v>      -0.00000000       0.00000000       0.00000000 </v>
  </varray>
  <varray name="stress" >
   <v>    1449.01997550      -0.00000000       0.00000000 </v>
   <v>      -0.00000000    1449.01997550       0.00000000 </v>
   <v>       0.00000000      -0.00000000    1449.01997550 </v>
  </varray>
  <energy>
   <i name="e_fr_energy">    -10.17419569 </i>
   <i name="e_wo_entrp">    -10.12441798 </i>
   <i name="e_0_energy">     -0.14933313 </i>
  </energy>
  <time name="totalsc">    0.57    0.23</time>
  <eigenvalues>
   <array>
    <dimension dim="1">band</dimension>
    <dimension dim="2">kpoint</dimension>
    <dimension dim="3">spin</dimension>
    <field>eigene</field>
    <field>occ</field>
    <set>
     <set comment="spin 1">
      <set comment="kpoint 1">
       <r>  -47.0642    1.0000 </r>
       <r>  -20.4526    1.0000 </r>
       <r>  -20.4492    1.0000 </r>
       <r>  -20.4490    1.0000 </r>
       <r>    5.5435    1.0000 </r>
       <r>   12.1345    0.6695 </r>
       <r>   12.1346    0.6691 </r>
       <r>   12.1365    0.6614 </r>
       <r>   15.1288   -0.0000 </r>
       <r>   15.1288   -0.0000 </r>
       <r>   27.5108    0.0000 </r>
      </set>
     </set>
    </set>
   </array>
  </eigenvalues>
  <separator name="orbital magnetization" >
   <v name="MAGDIPOLOUT">      0.00000000      0.00000000      0.00000000</v>
  </separator>
  <dos>
   <i name="efermi">     12.17547811 </i>
   <total>
    <array>
     <dimension dim="1">gridpoints</dimension>
     <dimension dim="2">spin</dimension>
     <field>energy</field>
     <field>total</field>
     <field>integrated</field>
     <set>
      <set comment="spin 1">
       <r>   -50.7929     0.0000     0.0000 </r>
       <r>   -50.5195     0.0000     0.0000 </r>
       <r>   -50.2461     0.0000     0.0000 </r>
       <r>   -49.9726     0.0000     0.0000 </r>
       <r>   -49.6992     0.0000     0.0000 </r>
       <r>   -49.4257     0.0000     0.0000 </r>
       <r>   -49.1523     0.0000     0.0000 </r>
       <r>   -48.8789    -0.0000    -0.0000 </r>
       <r>   -48.6054    -0.0000    -0.0000 </r>
       <r>   -48.3320    -0.0000    -0.0000 </r>
       <r>   -48.0585    -0.0000    -0.0000 </r>
       <r>   -47.7851    -0.0000    -0.0000 </r>
       <r>   -47.5116    -0.0252    -0.0069 </r>
       <r>   -47.2382    -0.0176    -0.0117 </r>
       <r>   -46.9648     6.3955     1.7371 </r>
       <r>   -46.6913     1.0499     2.0242 </r>
       <r>   -46.4179    -0.0882     2.0000 </r>
       <r>   -46.1444    -0.0002     2.0000 </r>
       <r>   -45.8710    -0.0000     2.0000 </r>
       <r>   -45.5976    -0.0000     2.0000 </r>
       <r>   -45.3241     0.0000     2.0000 </r>
       <r>   -45.0507     0.0000     2.0000 </r>
       <r>   -44.7772     0.0000     2.0000 </r>
       <r>   -44.5038     0.0000     2.0000 </r>
       <r>   -44.2303     0.0000     2.0000 </r>
       <r>   -43.9569     0.0000     2.0000 </r>
       <r>   -43.6835     0.0000     2.0000 </r>
       <r>   -43.4100     0.0000     2.0000 </r>
       <r>   -43.1366     0.0000     2.0000 </r>
       <r>   -42.8631     0.0000     2.0000 </r>
       <r>   -42.5897     0.0000     2.0000 </r>
       <r>   -42.3163     0.0000     2.0000 </r>
       <r>   -42.0428     0.0000     2.0000 </r>
       <r>   -41.7694     0.0000     2.0000 </r>
       <r>   -41.4959     0.0000     2.0000 </r>
       <r>   -41.2225     0.0000     2.0000 </r>
       <r>   -40.9490     0.0000     2.0000 </r>
       <r>   -40.6756     0.0000     2.0000 </r>
       <r>   -40.4022     0.0000     2.0000 </r>
       <r>   -40.1287     0.0000     2.0000 </r>
       <r>   -39.8553     0.0000     2.0000 </r>
       <r>   -39.5818     0.0000     2.0000 </r>
       <r>   -39.3084     0.0000     2.0000 </r>
       <r>   -39.0350     0.0000     2.0000 </r>
       <r>   -38.7615     0.0000     2.0000 </r>
       <r>   -38.4881     0.0000     2.0000 </r>
       <r>   -38.2146     0.0000     2.0000 </r>
       <r>   -37.9412     0.0000     2.0000 </r>
       <r>   -37.6677     0.0000     2.0000 </r>
       <r>   -37.3943     0.0000     2.0000 </r>
       <r>   -37.1209     0.0000     2.0000 </r>
       <r>   -36.8474     0.0000     2.0000 </r>
       <r>   -36.5740     0.0000     2.0000 </r>
       <r>   -36.3005     0.0000     2.0000 </r>
       <r>   -36.0271     0.0000     2.0000 </r>
       <r>   -35.7537     0.0000     2.0000 </r>
       <r>   -35.4802     0.0000     2.0000 </r>
       <r>   -35.2068     0.0000     2.0000 </r>
       <r>   -34.9333     0.0000     2.0000 </r>
       <r>   -34.6599     0.0000     2.0000 </r>
       <r>   -34.3864     0.0000     2.0000 </r>
       <r>   -34.1130     0.0000     2.0000 </r>
       <r>   -33.8396     0.0000     2.0000 </r>
       <r>   -33.5661     0.0000     2.0000 </r>
       <r>   -33.2927     0.0000     2.0000 </r>
       <r>   -33.0192     0.0000     2.0000 </r>
       <r>   -32.7458     0.0000     2.0000 </r>
       <r>   -32.4724     0.0000     2.0000 </r>
       <r>   -32.1989     0.0000     2.0000 </r>
       <r>   -31.9255     0.0000     2.0000 </r>
       <r>   -31.6520     0.0000     2.0000 </r>
       <r>   -31.3786     0.0000     2.0000 </r>
       <r>   -31.1052     0.0000     2.0000 </r>
       <r>   -30.8317     0.0000     2.0000 </r>
       <r>   -30.5583     0.0000     2.0000 </r>
       <r>   -30.2848     0.0000     2.0000 </r>
       <r>   -30.0114     0.0000     2.0000 </r>
       <r>   -29.7379     0.0000     2.0000 </r>
       <r>   -29.4645     0.0000     2.0000 </r>
       <r>   -29.1911     0.0000     2.0000 </r>
       <r>   -28.9176     0.0000     2.0000 </r>
       <r>   -28.6442     0.0000     2.0000 </r>
       <r>   -28.3707     0.0000     2.0000 </r>
       <r>   -28.0973     0.0000     2.0000 </r>
       <r>   -27.8239     0.0000     2.0000 </r>
       <r>   -27.5504     0.0000     2.0000 </r>
       <r>   -27.2770     0.0000     2.0000 </r>
       <r>   -27.0035     0.0000     2.0000 </r>
       <r>   -26.7301     0.0000     2.0000 </r>
       <r>   -26.4566     0.0000     2.0000 </r>
       <r>   -26.1832     0.0000     2.0000 </r>
       <r>   -25.9098     0.0000     2.0000 </r>
       <r>   -25.6363     0.0000     2.0000 </r>
       <r>   -25.3629     0.0000     2.0000 </r>
       <r>   -25.0894     0.0000     2.0000 </r>
       <r>   -24.8160     0.0000     2.0000 </r>
       <r>   -24.5426     0.0000     2.0000 </r>
       <r>   -24.2691     0.0000     2.0000 </r>
       <r>   -23.9957     0.0000     2.0000 </r>
       <r>   -23.7222     0.0000     2.0000 </r>
       <r>   -23.4488     0.0000     2.0000 </r>
       <r>   -23.1753     0.0000     2.0000 </r>
       <r>   -22.9019     0.0000     2.0000 </r>
       <r>   -22.6285     0.0000     2.0000 </r>
       <r>   -22.3550     0.0000     2.0000 </r>
       <r>   -22.0816    -0.0000     2.0000 </r>
       <r>   -21.8081    -0.0000     2.0000 </r>
       <r>   -21.5347    -0.0000     2.0000 </r>
       <r>   -21.2613    -0.0000     2.0000 </r>
       <r>   -20.9878    -0.0106     1.9971 </r>
       <r>   -20.7144    -0.7402     1.7947 </r>
       <r>   -20.4409    12.5873     5.2366 </r>
       <r>   -20.1675    10.7916     8.1875 </r>
       <r>   -19.8940    -0.6791     8.0018 </r>
       <r>   -19.6206    -0.0066     8.0000 </r>
       <r>   -19.3472    -0.0000     8.0000 </r>
       <r>   -19.0737    -0.0000     8.0000 </r>
       <r>   -18.8003     0.0000     8.0000 </r>
       <r>   -18.5268     0.0000     8.0000 </r>
       <r>   -18.2534     0.0000     8.0000 </r>
       <r>   -17.9800     0.0000     8.0000 </r>
       <r>   -17.7065     0.0000     8.0000 </r>
       <r>   -17.4331     0.0000     8.0000 </r>
       <r>   -17.1596     0.0000     8.0000 </r>
       <r>   -16.8862     0.0000     8.0000 </r>
       <r>   -16.6127     0.0000     8.0000 </r>
       <r>   -16.3393     0.0000     8.0000 </r>
       <r>   -16.0659     0.0000     8.0000 </r>
       <r>   -15.7924     0.0000     8.0000 </r>
       <r>   -15.5190     0.0000     8.0000 </r>
       <r>   -15.2455     0.0000     8.0000 </r>
       <r>   -14.9721     0.0000     8.0000 </r>
       <r>   -14.6987     0.0000     8.0000 </r>
       <r>   -14.4252     0.0000     8.0000 </r>
       <r>   -14.1518     0.0000     8.0000 </r>
       <r>   -13.8783     0.0000     8.0000 </r>
       <r>   -13.6049     0.0000     8.0000 </r>
       <r>   -13.3314     0.0000     8.0000 </r>
       <r>   -13.0580     0.0000     8.0000 </r>
       <r>   -12.7846     0.0000     8.0000 </r>
       <r>   -12.5111     0.0000     8.0000 </r>
       <r>   -12.2377     0.0000     8.0000 </r>
       <r>   -11.9642     0.0000     8.0000 </r>
       <r>   -11.6908     0.0000     8.0000 </r>
       <r>   -11.4174     0.0000     8.0000 </r>
       <r>   -11.1439     0.0000     8.0000 </r>
       <r>   -10.8705     0.0000     8.0000 </r>
       <r>   -10.5970     0.0000     8.0000 </r>
       <r>   -10.3236     0.0000     8.0000 </r>
       <r>   -10.0501     0.0000     8.0000 </r>
       <r>    -9.7767     0.0000     8.0000 </r>
       <r>    -9.5033     0.0000     8.0000 </r>
       <r>    -9.2298     0.0000     8.0000 </r>
       <r>    -8.9564     0.0000     8.0000 </r>
       <r>    -8.6829     0.0000     8.0000 </r>
       <r>    -8.4095     0.0000     8.0000 </r>
       <r>    -8.1361     0.0000     8.0000 </r>
       <r>    -7.8626     0.0000     8.0000 </r>
       <r>    -7.5892     0.0000     8.0000 </r>
       <r>    -7.3157     0.0000     8.0000 </r>
       <r>    -7.0423     0.0000     8.0000 </r>
       <r>    -6.7688     0.0000     8.0000 </r>
       <r>    -6.4954     0.0000     8.0000 </r>
       <r>    -6.2220     0.0000     8.0000 </r>
       <r>    -5.9485     0.0000     8.0000 </r>
       <r>    -5.6751     0.0000     8.0000 </r>
       <r>    -5.4016     0.0000     8.0000 </r>
       <r>    -5.1282     0.0000     8.0000 </r>
       <r>    -4.8548     0.0000     8.0000 </r>
       <r>    -4.5813     0.0000     8.0000 </r>
       <r>    -4.3079     0.0000     8.0000 </r>
       <r>    -4.0344     0.0000     8.0000 </r>
       <r>    -3.7610     0.0000     8.0000 </r>
       <r>    -3.4875     0.0000     8.0000 </r>
       <r>    -3.2141     0.0000     8.0000 </r>
       <r>    -2.9407     0.0000     8.0000 </r>
       <r>    -2.6672     0.0000     8.0000 </r>
       <r>    -2.3938     0.0000     8.0000 </r>
       <r>    -2.1203     0.0000     8.0000 </r>
       <r>    -1.8469     0.0000     8.0000 </r>
       <r>    -1.5735     0.0000     8.0000 </r>
       <r>    -1.3000     0.0000     8.0000 </r>
       <r>    -1.0266     0.0000     8.0000 </r>
       <r>    -0.7531     0.0000     8.0000 </r>
       <r>    -0.4797     0.0000     8.0000 </r>
       <r>    -0.2062     0.0000     8.0000 </r>
       <r>     0.0672     0.0000     8.0000 </r>
       <r>     0.3406     0.0000     8.0000 </r>
       <r>     0.6141     0.0000     8.0000 </r>
       <r>     0.8875     0.0000     8.0000 </r>
       <r>     1.1610     0.0000     8.0000 </r>
       <r>     1.4344     0.0000     8.0000 </r>
       <r>     1.7078     0.0000     8.0000 </r>
       <r>     1.9813     0.0000     8.0000 </r>
       <r>     2.2547     0.0000     8.0000 </r>
       <r>     2.5282     0.0000     8.0000 </r>
       <r>     2.8016     0.0000     8.0000 </r>
       <r>     3.0751     0.0000     8.0000 </r>
       <r>     3.3485     0.0000     8.0000 </r>
       <r>     3.6219     0.0000     8.0000 </r>
       <r>     3.8954    -0.0000     8.0000 </r>
       <r>     4.1688    -0.0000     8.0000 </r>
       <r>     4.4423    -0.0000     8.0000 </r>
       <r>     4.7157    -0.0000     8.0000 </r>
       <r>     4.9891    -0.0023     7.9994 </r>
       <r>     5.2626    -0.2288     7.9368 </r>
       <r>     5.5360     3.6569     8.9367 </r>
       <r>     5.8095     4.1370    10.0680 </r>
       <r>     6.0829    -0.2452    10.0009 </r>
       <r>     6.3564    -0.0034    10.0000 </r>
       <r>     6.6298    -0.0000    10.0000 </r>
       <r>     6.9032    -0.0000    10.0000 </r>
       <r>     7.1767     0.0000    10.0000 </r>
       <r>     7.4501     0.0000    10.0000 </r>
       <r>     7.7236     0.0000    10.0000 </r>
       <r>     7.9970     0.0000    10.0000 </r>
       <r>     8.2704     0.0000    10.0000 </r>
       <r>     8.5439     0.0000    10.0000 </r>
       <r>     8.8173     0.0000    10.0000 </r>
       <r>     9.0908     0.0000    10.0000 </r>
       <r>     9.3642     0.0000    10.0000 </r>
       <r>     9.6377     0.0000    10.0000 </r>
       <r>     9.9111     0.0000    10.0000 </r>
       <r>    10.1845     0.0000    10.0000 </r>
       <r>    10.4580    -0.0000    10.0000 </r>
       <r>    10.7314    -0.0000    10.0000 </r>
       <r>    11.0049    -0.0000    10.0000 </r>
       <r>    11.2783    -0.0000    10.0000 </r>
       <r>    11.5517    -0.0032     9.9991 </r>
       <r>    11.8252    -0.5536     9.8477 </r>
       <r>    12.0986     8.1949    12.0886 </r>
       <r>    12.3721    15.0765    16.2111 </r>
       <r>    12.6455    -0.7520    16.0055 </r>
       <r>    12.9190    -0.0201    16.0000 </r>
       <r>    13.1924    -0.0000    16.0000 </r>
       <r>    13.4658    -0.0000    16.0000 </r>
       <r>    13.7393    -0.0000    16.0000 </r>
       <r>    14.0127    -0.0000    16.0000 </r>
       <r>    14.2862    -0.0000    16.0000 </r>
       <r>    14.5596    -0.0031    15.9991 </r>
       <r>    14.8330    -0.4150    15.8857 </r>
       <r>    15.1065     6.3599    17.6247 </r>
       <r>    15.3799     9.2032    20.1413 </r>
       <r>    15.6534    -0.5070    20.0026 </r>
       <r>    15.9268    -0.0096    20.0000 </r>
       <r>    16.2003    -0.0000    20.0000 </r>
       <r>    16.4737    -0.0000    20.0000 </r>
       <r>    16.7471     0.0000    20.0000 </r>
       <r>    17.0206     0.0000    20.0000 </r>
       <r>    17.2940     0.0000    20.0000 </r>
       <r>    17.5675     0.0000    20.0000 </r>
       <r>    17.8409     0.0000    20.0000 </r>
       <r>    18.1143     0.0000    20.0000 </r>
       <r>    18.3878     0.0000    20.0000 </r>
       <r>    18.6612     0.0000    20.0000 </r>
       <r>    18.9347     0.0000    20.0000 </r>
       <r>    19.2081     0.0000    20.0000 </r>
       <r>    19.4815     0.0000    20.0000 </r>
       <r>    19.7550     0.0000    20.0000 </r>
       <r>    20.0284     0.0000    20.0000 </r>
       <r>    20.3019     0.0000    20.0000 </r>
       <r>    20.5753     0.0000    20.0000 </r>
       <r>    20.8488     0.0000    20.0000 </r>
       <r>    21.1222     0.0000    20.0000 </r>
       <r>    21.3956     0.0000    20.0000 </r>
       <r>    21.6691     0.0000    20.0000 </r>
       <r>    21.9425     0.0000    20.0000 </r>
       <r>    22.2160     0.0000    20.0000 </r>
       <r>    22.4894     0.0000    20.0000 </r>
       <r>    22.7628     0.0000    20.0000 </r>
       <r>    23.0363     0.0000    20.0000 </r>
       <r>    23.3097     0.0000    20.0000 </r>
       <r>    23.5832     0.0000    20.0000 </r>
       <r>    23.8566     0.0000    20.0000 </r>
       <r>    24.1301     0.0000    20.0000 </r>
       <r>    24.4035     0.0000    20.0000 </r>
       <r>    24.6769     0.0000    20.0000 </r>
       <r>    24.9504     0.0000    20.0000 </r>
       <r>    25.2238     0.0000    20.0000 </r>
       <r>    25.4973     0.0000    20.0000 </r>
       <r>    25.7707    -0.0000    20.0000 </r>
       <r>    26.0441    -0.0000    20.0000 </r>
       <r>    26.3176    -0.0000    20.0000 </r>
       <r>    26.5910    -0.0000    20.0000 </r>
       <r>    26.8645    -0.0002    20.0000 </r>
       <r>    27.1379    -0.0882    19.9758 </r>
       <r>    27.4114     1.0499    20.2629 </r>
       <r>    27.6848     6.3955    22.0117 </r>
       <r>    27.9582    -0.0176    22.0069 </r>
       <r>    28.2317    -0.0252    22.0000 </r>
       <r>    28.5051    -0.0000    22.0000 </r>
       <r>    28.7786    -0.0000    22.0000 </r>
       <r>    29.0520     0.0000    22.0000 </r>
       <r>    29.3254     0.0000    22.0000 </r>
       <r>    29.5989     0.0000    22.0000 </r>
       <r>    29.8723     0.0000    22.0000 </r>
       <r>    30.1458     0.0000    22.0000 </r>
       <r>    30.4192     0.0000    22.0000 </r>
       <r>    30.6927     0.0000    22.0000 </r>
       <r>    30.9661     0.0000    22.0000 </r>
       <r>    31.2395     0.0000    22.0000 </r>
      </set>
     </set>
    </array>
   </total>
  </dos>
 </calculation>
 <structure name="finalpos" >
  <crystal>
   <varray name="basis" >
    <v>      -1.57500000       1.57500000       1.57500000 </v>
    <v>       1.57500000      -1.57500000       1.57500000 </v>
    <v>       1.57500000       1.57500000      -1.57500000 </v>
   </varray>
   <i name="volume">     15.62793750 </i>
   <varray name="rec_basis" >
    <v>       0.00000000       0.31746032       0.31746032 </v>
    <v>       0.31746032       0.00000000       0.31746032 </v>
    <v>       0.31746032       0.31746032       0.00000000 </v>
   </varray>
  </crystal>
  <varray name="positions" >
   <v>       0.00000000       0.00000000       0.00000000 </v>
  </varray>
 </structure>
</modeling>
